<?xml version="1.0" encoding="UTF-8"?>

<!-- generated on 2024-06-11 11:50:16 by Eclipse SUMO sumo Version 1.20.0
<configuration xmlns:xsi="http://www.w3.org/2001/XMLSchema-instance" xsi:noNamespaceSchemaLocation="http://sumo.dlr.de/xsd/sumoConfiguration.xsd">

    <input>
        <net-file value="osm.net.xml.gz"/>
        <route-files value="osm.passenger.trips.xml"/>
        <additional-files value="osm.poly.xml.gz"/>
    </input>

    <output>
        <fcd-output value="test_fcd"/>
    </output>

    <processing>
        <ignore-route-errors value="true"/>
        <tls.actuated.jam-threshold value="30"/>
    </processing>

    <routing>
        <device.rerouting.adaptation-steps value="18"/>
        <device.rerouting.adaptation-interval value="10"/>
    </routing>

    <report>
        <verbose value="true"/>
        <duration-log.statistics value="true"/>
        <no-step-log value="true"/>
    </report>

    <gui_only>
        <gui-settings-file value="osm.view.xml"/>
    </gui_only>

</configuration>
-->

<fcd-export xmlns:xsi="http://www.w3.org/2001/XMLSchema-instance" xsi:noNamespaceSchemaLocation="http://sumo.dlr.de/xsd/fcd_file.xsd">
    <timestep time="0.00">
        <vehicle id="veh0" x="1494.70" y="2322.33" angle="9.47" type="veh_passenger" speed="0.00" pos="5.10" lane="313981600#3_0" slope="0.00"/>
    </timestep>
    <timestep time="1.00">
        <vehicle id="veh0" x="1495.16" y="2324.78" angle="10.34" type="veh_passenger" speed="2.49" pos="7.59" lane="313981600#3_0" slope="0.00"/>
        <vehicle id="veh1" x="335.49" y="631.23" angle="160.40" type="veh_passenger" speed="0.00" pos="5.10" lane="122313835#0_0" slope="0.00"/>
    </timestep>
    <timestep time="2.00">
        <vehicle id="veh0" x="1495.96" y="2329.06" angle="10.61" type="veh_passenger" speed="4.36" pos="11.95" lane="313981600#3_0" slope="0.00"/>
        <vehicle id="veh1" x="335.95" y="629.92" angle="160.40" type="veh_passenger" speed="1.38" pos="6.48" lane="122313835#0_0" slope="0.00"/>
        <vehicle id="veh2" x="1559.49" y="1399.16" angle="349.45" type="veh_passenger" speed="0.00" pos="5.10" lane="386265906#0_1" slope="0.00"/>
        <vehicle id="veh3" x="4624.51" y="492.15" angle="55.47" type="veh_passenger" speed="15.04" pos="5.10" lane="61921267#0_0" slope="0.00"/>
    </timestep>
    <timestep time="3.00">
        <vehicle id="veh0" x="1497.23" y="2335.85" angle="10.61" type="veh_passenger" speed="6.90" pos="18.85" lane="313981600#3_0" slope="0.00"/>
        <vehicle id="veh1" x="336.98" y="627.03" angle="160.40" type="veh_passenger" speed="3.07" pos="9.55" lane="122313835#0_0" slope="0.00"/>
        <vehicle id="veh2" x="1559.18" y="1400.79" angle="349.45" type="veh_passenger" speed="1.67" pos="6.77" lane="386265906#0_1" slope="0.00"/>
        <vehicle id="veh3" x="4636.88" y="500.66" angle="55.47" type="veh_passenger" speed="15.02" pos="20.12" lane="61921267#0_0" slope="0.00"/>
        <vehicle id="veh4" x="1450.70" y="411.16" angle="207.29" type="veh_passenger" speed="0.00" pos="4.63" lane="159833465#3_0" slope="0.00"/>
    </timestep>
    <timestep time="4.00">
        <vehicle id="veh0" x="1498.78" y="2344.15" angle="10.61" type="veh_passenger" speed="8.44" pos="27.30" lane="313981600#3_0" slope="0.00"/>
        <vehicle id="veh1" x="338.59" y="622.52" angle="160.40" type="veh_passenger" speed="4.79" pos="14.34" lane="122313835#0_0" slope="0.00"/>
        <vehicle id="veh2" x="1558.53" y="1404.29" angle="349.45" type="veh_passenger" speed="3.56" pos="10.32" lane="386265906#0_1" slope="0.00"/>
        <vehicle id="veh3" x="4648.37" y="510.21" angle="47.52" type="veh_passenger" speed="14.97" pos="35.09" lane="61921267#0_0" slope="0.00"/>
        <vehicle id="veh4" x="1449.85" y="410.00" angle="209.87" type="veh_passenger" speed="1.43" pos="1.43" lane=":cluster_368557_368559_0_0" slope="0.00"/>
        <vehicle id="veh5" x="2168.42" y="593.03" angle="123.28" type="veh_passenger" speed="0.00" pos="5.10" lane="8196681#5_0" slope="0.00"/>
        <vehicle id="veh6" x="5526.31" y="1658.69" angle="9.05" type="veh_passenger" speed="0.00" pos="5.10" lane="-129382224#0_0" slope="0.00"/>
    </timestep>
    <timestep time="5.00">
        <vehicle id="veh0" x="1500.38" y="2352.66" angle="10.61" type="veh_passenger" speed="8.67" pos="35.96" lane="313981600#3_0" slope="0.00"/>
        <vehicle id="veh1" x="340.82" y="616.24" angle="160.40" type="veh_passenger" speed="6.67" pos="21.01" lane="122313835#0_0" slope="0.00"/>
        <vehicle id="veh2" x="1557.54" y="1409.60" angle="349.45" type="veh_passenger" speed="5.41" pos="15.73" lane="386265906#0_1" slope="0.00"/>
        <vehicle id="veh3" x="4656.96" y="518.08" angle="47.52" type="veh_passenger" speed="11.65" pos="46.74" lane="61921267#0_0" slope="0.00"/>
        <vehicle id="veh4" x="1447.69" y="408.31" angle="223.65" type="veh_passenger" speed="2.81" pos="4.24" lane=":cluster_368557_368559_0_0" slope="0.00"/>
        <vehicle id="veh5" x="2170.44" y="591.71" angle="123.28" type="veh_passenger" speed="2.41" pos="7.51" lane="8196681#5_0" slope="0.00"/>
        <vehicle id="veh6" x="5526.66" y="1660.90" angle="9.05" type="veh_passenger" speed="2.24" pos="7.34" lane="-129382224#0_0" slope="0.00"/>
        <vehicle id="veh8" x="1851.69" y="1314.30" angle="330.56" type="veh_passenger" speed="0.00" pos="0.32" lane="-8225153#3_0" slope="0.00"/>
    </timestep>
    <timestep time="6.00">
        <vehicle id="veh0" x="1501.82" y="2360.39" angle="10.61" type="veh_passenger" speed="7.86" pos="43.82" lane="313981600#3_0" slope="0.00"/>
        <vehicle id="veh1" x="343.05" y="609.99" angle="160.40" type="veh_passenger" speed="6.64" pos="27.64" lane="122313835#0_0" slope="0.00"/>
        <vehicle id="veh2" x="1556.29" y="1416.35" angle="349.45" type="veh_passenger" speed="6.88" pos="22.61" lane="386265906#0_1" slope="0.00"/>
        <vehicle id="veh3" x="4662.22" y="523.07" angle="46.10" type="veh_passenger" speed="7.26" pos="54.00" lane="61921267#0_0" slope="0.00"/>
        <vehicle id="veh4" x="1443.68" y="408.60" angle="268.49" type="veh_passenger" speed="4.14" pos="8.38" lane=":cluster_368557_368559_0_0" slope="0.00"/>
        <vehicle id="veh5" x="2173.68" y="589.58" angle="123.28" type="veh_passenger" speed="3.87" pos="11.39" lane="8196681#5_0" slope="0.00"/>
        <vehicle id="veh6" x="5527.42" y="1665.64" angle="9.05" type="veh_passenger" speed="4.80" pos="12.14" lane="-129382224#0_0" slope="0.00"/>
        <vehicle id="veh8" x="1852.36" y="1316.72" angle="355.28" type="veh_passenger" speed="2.51" pos="2.51" lane=":7022635681_7_0" slope="0.00"/>
    </timestep>
    <timestep time="7.00">
        <vehicle id="veh0" x="1503.39" y="2368.72" angle="10.61" type="veh_passenger" speed="8.48" pos="52.30" lane="313981600#3_0" slope="0.00"/>
        <vehicle id="veh1" x="345.50" y="603.10" angle="160.40" type="veh_passenger" speed="7.31" pos="34.96" lane="122313835#0_0" slope="0.00"/>
        <vehicle id="veh2" x="1554.78" y="1424.51" angle="349.47" type="veh_passenger" speed="8.30" pos="30.91" lane="386265906#0_1" slope="0.00"/>
        <vehicle id="veh3" x="4666.89" y="529.82" angle="29.26" type="veh_passenger" speed="8.34" pos="5.44" lane=":771860055_4_0" slope="0.00"/>
        <vehicle id="veh4" x="1438.72" y="410.91" angle="295.50" type="veh_passenger" speed="5.48" pos="4.27" lane="8196585_0" slope="0.00"/>
        <vehicle id="veh5" x="2178.95" y="586.12" angle="123.28" type="veh_passenger" speed="6.30" pos="17.69" lane="8196681#5_0" slope="0.00"/>
        <vehicle id="veh6" x="5528.58" y="1672.93" angle="9.05" type="veh_passenger" speed="7.39" pos="19.53" lane="-129382224#0_0" slope="0.00"/>
        <vehicle id="veh8" x="1853.73" y="1321.64" angle="15.57" type="veh_passenger" speed="5.11" pos="7.61" lane=":7022635681_7_0" slope="0.00"/>
    </timestep>
    <timestep time="8.00">
        <vehicle id="veh0" x="1504.81" y="2376.30" angle="10.61" type="veh_passenger" speed="7.71" pos="60.01" lane="313981600#3_0" slope="0.00"/>
        <vehicle id="veh1" x="348.09" y="595.83" angle="160.40" type="veh_passenger" speed="7.72" pos="42.67" lane="122313835#0_0" slope="0.00"/>
        <vehicle id="veh2" x="1553.17" y="1432.05" angle="347.93" type="veh_passenger" speed="7.72" pos="38.63" lane="386265906#0_1" slope="0.00"/>
        <vehicle id="veh3" x="4665.00" y="536.58" angle="334.11" type="veh_passenger" speed="7.42" pos="12.86" lane=":771860055_4_0" slope="0.00"/>
        <vehicle id="veh4" x="1432.00" y="414.25" angle="296.46" type="veh_passenger" speed="7.50" pos="4.10" lane=":286566116_1_0" slope="0.00"/>
        <vehicle id="veh5" x="2184.34" y="582.59" angle="123.28" type="veh_passenger" speed="6.45" pos="24.13" lane="8196681#5_0" slope="0.00"/>
        <vehicle id="veh6" x="5529.79" y="1680.55" angle="9.05" type="veh_passenger" speed="7.71" pos="27.24" lane="-129382224#0_0" slope="0.00"/>
        <vehicle id="veh8" x="1855.63" y="1328.33" angle="15.93" type="veh_passenger" speed="6.95" pos="3.36" lane="-8225153#0_0" slope="0.00"/>
    </timestep>
    <timestep time="9.00">
        <vehicle id="veh0" x="1506.27" y="2384.13" angle="10.61" type="veh_passenger" speed="7.96" pos="67.98" lane="313981600#3_0" slope="0.00"/>
        <vehicle id="veh1" x="350.06" y="590.31" angle="160.41" type="veh_passenger" speed="5.86" pos="48.53" lane="122313835#0_0" slope="0.00"/>
        <vehicle id="veh2" x="1551.80" y="1440.33" angle="352.51" type="veh_passenger" speed="8.41" pos="4.64" lane=":1352605_1_0" slope="0.00"/>
        <vehicle id="veh3" x="4659.40" y="542.25" angle="313.89" type="veh_passenger" speed="7.99" pos="6.52" lane="-301977728#0_0" slope="0.00"/>
        <vehicle id="veh4" x="1423.16" y="418.65" angle="296.45" type="veh_passenger" speed="9.88" pos="13.97" lane=":286566116_1_0" slope="0.00"/>
        <vehicle id="veh5" x="2189.45" y="579.23" angle="123.28" type="veh_passenger" speed="6.11" pos="30.25" lane="8196681#5_0" slope="0.00"/>
        <vehicle id="veh6" x="5530.71" y="1688.42" angle="6.63" type="veh_passenger" speed="7.93" pos="3.77" lane=":1427517064_9_0" slope="0.00"/>
        <vehicle id="veh8" x="1857.55" y="1334.96" angle="16.11" type="veh_passenger" speed="6.90" pos="10.26" lane="-8225153#0_0" slope="0.00"/>
    </timestep>
    <timestep time="10.00">
        <vehicle id="veh0" x="1507.72" y="2391.84" angle="10.61" type="veh_passenger" speed="7.85" pos="75.82" lane="313981600#3_0" slope="0.00"/>
        <vehicle id="veh1" x="352.46" y="584.74" angle="155.81" type="veh_passenger" speed="6.08" pos="2.82" lane=":3264216360_14_0" slope="0.00"/>
        <vehicle id="veh2" x="1551.24" y="1448.57" angle="353.80" type="veh_passenger" speed="8.28" pos="12.92" lane=":1352605_1_0" slope="0.00"/>
        <vehicle id="veh3" x="4652.02" y="549.35" angle="313.89" type="veh_passenger" speed="10.23" pos="16.76" lane="-301977728#0_0" slope="0.00"/>
        <vehicle id="veh4" x="1412.55" y="423.74" angle="295.48" type="veh_passenger" speed="11.77" pos="10.11" lane="159833451_0" slope="0.00"/>
        <vehicle id="veh5" x="2195.20" y="575.46" angle="123.28" type="veh_passenger" speed="6.88" pos="37.13" lane="8196681#5_0" slope="0.00"/>
        <vehicle id="veh6" x="5531.71" y="1696.46" angle="7.04" type="veh_passenger" speed="8.10" pos="11.87" lane=":1427517064_9_0" slope="0.00"/>
        <vehicle id="veh8" x="1860.12" y="1340.09" angle="28.39" type="veh_passenger" speed="5.84" pos="4.28" lane=":1352604_0_0" slope="0.00"/>
    </timestep>
    <timestep time="11.00">
        <vehicle id="veh0" x="1509.33" y="2400.47" angle="10.61" type="veh_passenger" speed="8.77" pos="84.60" lane="313981600#3_0" slope="0.00"/>
        <vehicle id="veh1" x="357.17" y="581.45" angle="119.11" type="veh_passenger" speed="6.07" pos="8.89" lane=":3264216360_14_0" slope="0.00"/>
        <vehicle id="veh2" x="1549.42" y="1455.68" angle="345.98" type="veh_passenger" speed="7.34" pos="7.25" lane="37331980#0_0" slope="0.00"/>
        <vehicle id="veh3" x="4643.17" y="558.47" angle="316.78" type="veh_passenger" speed="12.71" pos="29.47" lane="-301977728#0_0" slope="0.00"/>
        <vehicle id="veh4" x="1400.20" y="429.63" angle="295.48" type="veh_passenger" speed="13.69" pos="23.80" lane="159833451_0" slope="0.00"/>
        <vehicle id="veh5" x="2200.41" y="572.04" angle="123.28" type="veh_passenger" speed="6.23" pos="43.36" lane="8196681#5_0" slope="0.00"/>
        <vehicle id="veh6" x="5533.05" y="1703.93" angle="11.81" type="veh_passenger" speed="7.60" pos="3.74" lane="-129382225_0" slope="0.00"/>
        <vehicle id="veh8" x="1864.72" y="1341.15" angle="76.73" type="veh_passenger" speed="4.95" pos="9.23" lane=":1352604_0_0" slope="0.00"/>
    </timestep>
    <timestep time="12.00">
        <vehicle id="veh0" x="1510.89" y="2408.81" angle="10.61" type="veh_passenger" speed="8.49" pos="93.08" lane="313981600#3_0" slope="0.00"/>
        <vehicle id="veh1" x="363.34" y="582.71" angle="73.02" type="veh_passenger" speed="6.42" pos="0.76" lane="-319929498#8_0" slope="0.00"/>
        <vehicle id="veh2" x="1547.58" y="1463.06" angle="346.02" type="veh_passenger" speed="7.61" pos="14.86" lane="37331980#0_0" slope="0.00"/>
        <vehicle id="veh3" x="4633.74" y="568.51" angle="316.78" type="veh_passenger" speed="13.77" pos="43.24" lane="-301977728#0_0" slope="0.00"/>
        <vehicle id="veh4" x="1388.10" y="435.39" angle="295.48" type="veh_passenger" speed="13.40" pos="37.20" lane="159833451_0" slope="0.00"/>
        <vehicle id="veh5" x="2205.35" y="568.79" angle="123.28" type="veh_passenger" speed="5.91" pos="49.27" lane="8196681#5_0" slope="0.00"/>
        <vehicle id="veh6" x="5535.58" y="1711.84" angle="17.78" type="veh_passenger" speed="8.31" pos="12.05" lane="-129382225_0" slope="0.00"/>
        <vehicle id="veh8" x="1869.40" y="1340.07" angle="102.70" type="veh_passenger" speed="4.81" pos="4.45" lane="24900359#0_0" slope="0.00"/>
    </timestep>
    <timestep time="13.00">
        <vehicle id="veh0" x="1513.89" y="2416.34" angle="24.01" type="veh_passenger" speed="8.15" pos="7.89" lane=":3200217207_0_0" slope="0.00"/>
        <vehicle id="veh1" x="371.18" y="586.33" angle="65.20" type="veh_passenger" speed="8.64" pos="9.40" lane="-319929498#8_0" slope="0.00"/>
        <vehicle id="veh2" x="1545.67" y="1470.75" angle="346.02" type="veh_passenger" speed="7.92" pos="22.78" lane="37331980#0_0" slope="0.00"/>
        <vehicle id="veh3" x="4624.25" y="578.61" angle="316.78" type="veh_passenger" speed="13.86" pos="57.11" lane="-301977728#0_0" slope="0.00"/>
        <vehicle id="veh4" x="1376.33" y="441.02" angle="295.64" type="veh_passenger" speed="13.04" pos="50.24" lane="159833451_0" slope="0.00"/>
        <vehicle id="veh5" x="2211.01" y="565.08" angle="123.28" type="veh_passenger" speed="6.77" pos="56.04" lane="8196681#5_0" slope="0.00"/>
        <vehicle id="veh6" x="5538.06" y="1719.58" angle="17.78" type="veh_passenger" speed="8.13" pos="20.18" lane="-129382225_0" slope="0.00"/>
        <vehicle id="veh8" x="1876.40" y="1338.36" angle="103.70" type="veh_passenger" speed="7.21" pos="11.65" lane="24900359#0_0" slope="0.00"/>
    </timestep>
    <timestep time="14.00">
        <vehicle id="veh0" x="1515.31" y="2423.81" angle="10.48" type="veh_passenger" speed="7.61" pos="7.29" lane="313981597#0_0" slope="0.00"/>
        <vehicle id="veh1" x="381.31" y="591.01" angle="65.20" type="veh_passenger" speed="11.15" pos="20.55" lane="-319929498#8_0" slope="0.00"/>
        <vehicle id="veh2" x="1543.92" y="1477.78" angle="346.02" type="veh_passenger" speed="7.24" pos="30.02" lane="37331980#0_0" slope="0.00"/>
        <vehicle id="veh3" x="4614.68" y="588.79" angle="316.78" type="veh_passenger" speed="13.97" pos="71.07" lane="-301977728#0_0" slope="0.00"/>
        <vehicle id="veh4" x="1363.49" y="447.13" angle="295.32" type="veh_passenger" speed="14.22" pos="8.64" lane=":281431795_0_0" slope="0.00"/>
        <vehicle id="veh5" x="2216.52" y="561.46" angle="123.34" type="veh_passenger" speed="6.59" pos="62.63" lane="8196681#5_0" slope="0.00"/>
        <vehicle id="veh6" x="5540.72" y="1727.86" angle="17.78" type="veh_passenger" speed="8.70" pos="28.88" lane="-129382225_0" slope="0.00"/>
        <vehicle id="veh8" x="1883.02" y="1336.75" angle="103.70" type="veh_passenger" speed="6.82" pos="18.47" lane="24900359#0_0" slope="0.00"/>
    </timestep>
    <timestep time="15.00">
        <vehicle id="veh0" x="1516.81" y="2431.93" angle="10.48" type="veh_passenger" speed="8.26" pos="15.55" lane="313981597#0_0" slope="0.00"/>
        <vehicle id="veh1" x="392.90" y="596.37" angle="65.20" type="veh_passenger" speed="12.77" pos="33.33" lane="-319929498#8_0" slope="0.00"/>
        <vehicle id="veh2" x="1541.96" y="1485.65" angle="346.02" type="veh_passenger" speed="8.12" pos="38.14" lane="37331980#0_0" slope="0.00"/>
        <vehicle id="veh3" x="4605.23" y="598.85" angle="316.78" type="veh_passenger" speed="13.80" pos="84.88" lane="-301977728#0_0" slope="0.00"/>
        <vehicle id="veh4" x="1350.79" y="453.10" angle="295.18" type="veh_passenger" speed="14.04" pos="13.61" lane="159833459#2_0" slope="0.00"/>
        <vehicle id="veh5" x="2222.09" y="557.77" angle="123.45" type="veh_passenger" speed="6.68" pos="69.31" lane="8196681#5_0" slope="0.00"/>
        <vehicle id="veh6" x="5543.25" y="1735.75" angle="17.78" type="veh_passenger" speed="8.29" pos="37.17" lane="-129382225_0" slope="0.00"/>
        <vehicle id="veh8" x="1890.02" y="1335.04" angle="103.70" type="veh_passenger" speed="7.20" pos="25.67" lane="24900359#0_0" slope="0.00"/>
    </timestep>
    <timestep time="16.00">
        <vehicle id="veh0" x="1518.30" y="2439.97" angle="10.48" type="veh_passenger" speed="8.18" pos="23.74" lane="313981597#0_0" slope="0.00"/>
        <vehicle id="veh1" x="404.45" y="601.70" angle="65.20" type="veh_passenger" speed="12.72" pos="46.05" lane="-319929498#8_0" slope="0.00"/>
        <vehicle id="veh2" x="1540.20" y="1492.70" angle="346.02" type="veh_passenger" speed="7.26" pos="45.40" lane="37331980#0_0" slope="0.00"/>
        <vehicle id="veh3" x="4595.18" y="609.54" angle="316.78" type="veh_passenger" speed="14.67" pos="99.55" lane="-301977728#0_0" slope="0.00"/>
        <vehicle id="veh4" x="1338.98" y="459.53" angle="301.55" type="veh_passenger" speed="13.46" pos="5.07" lane="159833459#3_0" slope="0.00"/>
        <vehicle id="veh5" x="2227.36" y="554.29" angle="123.45" type="veh_passenger" speed="6.31" pos="75.62" lane="8196681#5_0" slope="0.00"/>
        <vehicle id="veh6" x="5545.71" y="1743.41" angle="17.78" type="veh_passenger" speed="8.05" pos="45.22" lane="-129382225_0" slope="0.00"/>
        <vehicle id="veh8" x="1896.10" y="1333.56" angle="103.70" type="veh_passenger" speed="6.25" pos="31.92" lane="24900359#0_0" slope="0.00"/>
    </timestep>
    <timestep time="17.00">
        <vehicle id="veh0" x="1519.89" y="2448.61" angle="10.48" type="veh_passenger" speed="8.79" pos="32.52" lane="313981597#0_0" slope="0.00"/>
        <vehicle id="veh1" x="416.04" y="607.06" angle="65.20" type="veh_passenger" speed="12.76" pos="58.81" lane="-319929498#8_0" slope="0.00"/>
        <vehicle id="veh2" x="1538.31" y="1500.30" angle="346.02" type="veh_passenger" speed="7.83" pos="53.23" lane="37331980#0_0" slope="0.00"/>
        <vehicle id="veh3" x="4585.42" y="619.94" angle="316.78" type="veh_passenger" speed="14.26" pos="113.81" lane="-301977728#0_0" slope="0.00"/>
        <vehicle id="veh4" x="1327.70" y="467.37" angle="308.43" type="veh_passenger" speed="13.76" pos="18.83" lane="159833459#3_0" slope="0.00"/>
        <vehicle id="veh5" x="2232.18" y="551.11" angle="123.45" type="veh_passenger" speed="5.77" pos="81.40" lane="8196681#5_0" slope="0.00"/>
        <vehicle id="veh6" x="5548.28" y="1751.42" angle="17.78" type="veh_passenger" speed="8.41" pos="53.63" lane="-129382225_0" slope="0.00"/>
        <vehicle id="veh8" x="1900.51" y="1332.10" angle="108.03" type="veh_passenger" speed="4.67" pos="2.19" lane=":659614608_0_0" slope="0.00"/>
    </timestep>
    <timestep time="18.00">
        <vehicle id="veh0" x="1521.34" y="2456.44" angle="10.48" type="veh_passenger" speed="7.96" pos="40.48" lane="313981597#0_0" slope="0.00"/>
        <vehicle id="veh1" x="427.16" y="612.19" angle="65.20" type="veh_passenger" speed="12.25" pos="71.06" lane="-319929498#8_0" slope="0.00"/>
        <vehicle id="veh2" x="1536.31" y="1508.35" angle="346.02" type="veh_passenger" speed="8.30" pos="61.53" lane="37331980#0_0" slope="0.00"/>
        <vehicle id="veh3" x="4575.26" y="630.21" angle="312.60" type="veh_passenger" speed="14.46" pos="128.27" lane="-301977728#0_0" slope="0.00"/>
        <vehicle id="veh4" x="1317.26" y="475.65" angle="308.42" type="veh_passenger" speed="13.33" pos="32.16" lane="159833459#3_0" slope="0.00"/>
        <vehicle id="veh5" x="2237.84" y="547.37" angle="123.45" type="veh_passenger" speed="6.79" pos="88.19" lane="8196681#5_0" slope="0.00"/>
        <vehicle id="veh6" x="5549.59" y="1757.06" angle="12.36" type="veh_passenger" speed="5.79" pos="59.42" lane="-129382225_0" slope="0.00"/>
        <vehicle id="veh8" x="1902.78" y="1327.33" angle="156.82" type="veh_passenger" speed="5.50" pos="7.69" lane=":659614608_0_0" slope="0.00"/>
    </timestep>
    <timestep time="19.00">
        <vehicle id="veh0" x="1522.73" y="2463.96" angle="10.48" type="veh_passenger" speed="7.65" pos="48.13" lane="313981597#0_0" slope="0.00"/>
        <vehicle id="veh1" x="437.75" y="617.36" angle="62.32" type="veh_passenger" speed="11.79" pos="82.85" lane="-319929498#8_0" slope="0.00"/>
        <vehicle id="veh2" x="1534.40" y="1516.02" angle="346.02" type="veh_passenger" speed="7.90" pos="69.43" lane="37331980#0_0" slope="0.00"/>
        <vehicle id="veh3" x="4564.63" y="639.76" angle="311.93" type="veh_passenger" speed="14.29" pos="142.56" lane="-301977728#0_0" slope="0.00"/>
        <vehicle id="veh4" x="1306.88" y="483.88" angle="308.42" type="veh_passenger" speed="13.24" pos="45.40" lane="159833459#3_0" slope="0.00"/>
        <vehicle id="veh5" x="2243.57" y="543.58" angle="123.46" type="veh_passenger" speed="6.87" pos="95.06" lane="8196681#5_0" slope="0.00"/>
        <vehicle id="veh6" x="5548.95" y="1764.38" angle="346.53" type="veh_passenger" speed="7.55" pos="4.01" lane=":cluster_1427517074_4841493306_63620223_10_0" slope="0.00"/>
        <vehicle id="veh8" x="1902.81" y="1321.96" angle="179.82" type="veh_passenger" speed="5.36" pos="5.25" lane="51608150_0" slope="0.00"/>
    </timestep>
    <timestep time="20.00">
        <vehicle id="veh0" x="1523.77" y="2469.56" angle="10.47" type="veh_passenger" speed="5.70" pos="53.84" lane="313981597#0_0" slope="0.00"/>
        <vehicle id="veh1" x="448.53" y="623.03" angle="62.26" type="veh_passenger" speed="12.18" pos="95.03" lane="-319929498#8_0" slope="0.00"/>
        <vehicle id="veh2" x="1532.62" y="1523.16" angle="346.02" type="veh_passenger" speed="7.36" pos="76.79" lane="37331980#0_0" slope="0.00"/>
        <vehicle id="veh3" x="4553.60" y="649.67" angle="311.93" type="veh_passenger" speed="14.83" pos="157.39" lane="-301977728#0_0" slope="0.00"/>
        <vehicle id="veh4" x="1295.86" y="492.62" angle="308.43" type="veh_passenger" speed="14.07" pos="59.47" lane="159833459#3_0" slope="0.00"/>
        <vehicle id="veh5" x="2248.51" y="540.28" angle="123.75" type="veh_passenger" speed="5.93" pos="100.99" lane="8196681#5_0" slope="0.00"/>
        <vehicle id="veh6" x="5543.13" y="1769.51" angle="302.58" type="veh_passenger" speed="8.00" pos="12.02" lane=":cluster_1427517074_4841493306_63620223_10_0" slope="0.00"/>
        <vehicle id="veh8" x="1901.52" y="1316.72" angle="195.26" type="veh_passenger" speed="5.54" pos="4.26" lane=":368879_0_0" slope="0.00"/>
    </timestep>
    <timestep time="21.00">
        <vehicle id="veh0" x="1524.15" y="2471.63" angle="10.47" type="veh_passenger" speed="2.10" pos="55.94" lane="313981597#0_0" slope="0.00"/>
        <vehicle id="veh1" x="458.98" y="628.53" angle="62.26" type="veh_passenger" speed="11.81" pos="106.83" lane="-319929498#8_0" slope="0.00"/>
        <vehicle id="veh2" x="1530.59" y="1531.31" angle="346.02" type="veh_passenger" speed="8.40" pos="85.19" lane="37331980#0_0" slope="0.00"/>
        <vehicle id="veh3" x="4543.39" y="659.37" angle="316.09" type="veh_passenger" speed="14.09" pos="171.48" lane="-301977728#0_0" slope="0.00"/>
        <vehicle id="veh4" x="1284.84" y="501.36" angle="308.43" type="veh_passenger" speed="14.06" pos="73.54" lane="159833459#3_0" slope="0.00"/>
        <vehicle id="veh5" x="2253.81" y="536.74" angle="123.75" type="veh_passenger" speed="6.38" pos="107.37" lane="8196681#5_0" slope="0.00"/>
        <vehicle id="veh6" x="5535.09" y="1772.11" angle="287.24" type="veh_passenger" speed="8.45" pos="7.71" lane="55301399#0_0" slope="0.00"/>
        <vehicle id="veh8" x="1896.49" y="1314.12" angle="245.01" type="veh_passenger" speed="5.76" pos="1.94" lane="9823971#3_0" slope="0.00"/>
    </timestep>
    <timestep time="22.00">
        <vehicle id="veh0" x="1524.24" y="2472.13" angle="10.46" type="veh_passenger" speed="0.50" pos="56.44" lane="313981597#0_0" slope="0.00"/>
        <vehicle id="veh1" x="470.17" y="634.24" angle="63.95" type="veh_passenger" speed="12.57" pos="119.40" lane="-319929498#8_0" slope="0.00"/>
        <vehicle id="veh2" x="1528.71" y="1538.87" angle="346.02" type="veh_passenger" speed="7.79" pos="92.98" lane="37331980#0_0" slope="0.00"/>
        <vehicle id="veh3" x="4533.57" y="669.56" angle="316.07" type="veh_passenger" speed="14.15" pos="185.63" lane="-301977728#0_0" slope="0.00"/>
        <vehicle id="veh4" x="1274.48" y="509.46" angle="307.20" type="veh_passenger" speed="13.16" pos="86.69" lane="159833459#3_0" slope="0.00"/>
        <vehicle id="veh5" x="2258.38" y="533.69" angle="123.75" type="veh_passenger" speed="5.50" pos="112.87" lane="8196681#5_0" slope="0.00"/>
        <vehicle id="veh6" x="5527.96" y="1774.32" angle="287.24" type="veh_passenger" speed="7.46" pos="15.17" lane="55301399#0_0" slope="0.00"/>
        <vehicle id="veh8" x="1889.03" y="1311.80" angle="252.75" type="veh_passenger" speed="7.82" pos="9.76" lane="9823971#3_0" slope="0.00"/>
    </timestep>
    <timestep time="23.00">
        <vehicle id="veh0" x="1524.29" y="2472.41" angle="10.46" type="veh_passenger" speed="0.29" pos="56.74" lane="313981597#0_0" slope="0.00"/>
        <vehicle id="veh1" x="481.59" y="639.75" angle="64.23" type="veh_passenger" speed="12.68" pos="132.08" lane="-319929498#8_0" slope="0.00"/>
        <vehicle id="veh2" x="1526.82" y="1546.43" angle="346.02" type="veh_passenger" speed="7.80" pos="100.78" lane="37331980#0_0" slope="0.00"/>
        <vehicle id="veh3" x="4523.44" y="680.15" angle="316.73" type="veh_passenger" speed="14.67" pos="1.58" lane="-132408301_0" slope="0.00"/>
        <vehicle id="veh4" x="1262.94" y="517.73" angle="307.36" type="veh_passenger" speed="14.21" pos="8.20" lane="25801147_0" slope="0.00"/>
        <vehicle id="veh5" x="2263.69" y="530.03" angle="124.74" type="veh_passenger" speed="6.45" pos="3.14" lane=":265729648_10_0" slope="0.00"/>
        <vehicle id="veh6" x="5519.80" y="1776.85" angle="287.23" type="veh_passenger" speed="8.54" pos="23.71" lane="55301399#0_0" slope="0.00"/>
        <vehicle id="veh8" x="1879.86" y="1308.45" angle="249.57" type="veh_passenger" speed="9.77" pos="19.53" lane="9823971#3_0" slope="0.00"/>
    </timestep>
    <timestep time="24.00">
        <vehicle id="veh0" x="1524.31" y="2472.53" angle="10.46" type="veh_passenger" speed="0.12" pos="56.85" lane="313981597#0_0" slope="0.00"/>
        <vehicle id="veh1" x="492.91" y="645.22" angle="64.23" type="veh_passenger" speed="12.57" pos="144.65" lane="-319929498#8_0" slope="0.00"/>
        <vehicle id="veh2" x="1524.97" y="1553.88" angle="346.02" type="veh_passenger" speed="7.67" pos="108.44" lane="37331980#0_0" slope="0.00"/>
        <vehicle id="veh3" x="4513.79" y="690.88" angle="318.00" type="veh_passenger" speed="14.43" pos="16.01" lane="-132408301_0" slope="0.00"/>
        <vehicle id="veh4" x="1252.38" y="525.79" angle="307.36" type="veh_passenger" speed="13.29" pos="21.49" lane="25801147_0" slope="0.00"/>
        <vehicle id="veh5" x="2268.91" y="526.34" angle="125.32" type="veh_passenger" speed="6.39" pos="9.54" lane=":265729648_10_0" slope="0.00"/>
        <vehicle id="veh6" x="5512.09" y="1779.24" angle="287.23" type="veh_passenger" speed="8.07" pos="31.78" lane="55301399#0_0" slope="0.00"/>
        <vehicle id="veh8" x="1868.87" y="1304.35" angle="249.57" type="veh_passenger" speed="11.75" pos="31.28" lane="9823971#3_0" slope="0.00"/>
    </timestep>
    <timestep time="25.00">
        <vehicle id="veh0" x="1524.32" y="2472.54" angle="10.46" type="veh_passenger" speed="0.01" pos="56.87" lane="313981597#0_0" slope="0.00"/>
        <vehicle id="veh1" x="504.17" y="650.65" angle="64.24" type="veh_passenger" speed="12.50" pos="157.15" lane="-319929498#8_0" slope="0.00"/>
        <vehicle id="veh2" x="1522.96" y="1561.96" angle="346.02" type="veh_passenger" speed="8.33" pos="116.78" lane="37331980#0_0" slope="0.00"/>
        <vehicle id="veh3" x="4504.23" y="701.50" angle="318.00" type="veh_passenger" speed="14.29" pos="30.30" lane="-132408301_0" slope="0.00"/>
        <vehicle id="veh4" x="1241.18" y="534.34" angle="307.36" type="veh_passenger" speed="14.09" pos="35.58" lane="25801147_0" slope="0.00"/>
        <vehicle id="veh5" x="2273.65" y="522.95" angle="125.58" type="veh_passenger" speed="5.83" pos="0.67" lane="8196681#8_0" slope="0.00"/>
        <vehicle id="veh6" x="5504.39" y="1781.63" angle="287.23" type="veh_passenger" speed="8.06" pos="39.85" lane="55301399#0_0" slope="0.00"/>
        <vehicle id="veh8" x="1858.19" y="1300.38" angle="249.57" type="veh_passenger" speed="11.40" pos="42.68" lane="9823971#3_0" slope="0.00"/>
    </timestep>
    <timestep time="26.00">